/*--------------------------------*- C++ -*----------------------------------*\
  =========                 |
  \\      /  F ield         | OpenFOAM: The Open Source CFD Toolbox
   \\    /   O peration     | Website:  https://openfoam.org
    \\  /    A nd           | Version:  10
     \\/     M anipulation  |
\*---------------------------------------------------------------------------*/
FoamFile
{
    format      ascii;
    class       volScalarField;
    location    "0";
    object      wallHeatFlux;
}
// * * * * * * * * * * * * * * * * * * * * * * * * * * * * * * * * * * * * * //

dimensions      [1 0 -3 0 0 0 0];

internalField   uniform 0;

boundaryField
{
    back
    {
        type            calculated;
        value           uniform 0;
    }
    bottom
    {
        type            calculated;
        value           nonuniform List<scalar>
50
(
2608.59063829784
2608.59063829784
2608.59063829789
2608.59063829784
2608.59063829789
2608.59063829784
2608.59063829784
2608.59063829784
2608.59063829784
2608.59063829789
2608.5906382978
2608.59063829784
2608.59063829793
2608.59063829784
2608.59063829793
2608.59063829784
2608.59063829789
2608.59063829789
2608.59063829784
2608.59063829789
2608.59063829793
2608.59063829789
2608.59063829784
2608.59063829793
2608.59063829784
2608.59063829784
2608.59063829789
2608.59063829789
2608.59063829789
2608.59063829789
2608.59063829789
2608.59063829784
2608.59063829789
2608.59063829789
2608.59063829789
2608.59063829784
2608.59063829789
2608.59063829789
2608.59063829789
2608.59063829789
2608.59063829784
2608.5906382978
2608.59063829789
2608.59063829789
2608.5906382978
2608.59063829793
2608.59063829793
2608.5906382978
2608.59063829789
2608.59063829789
)
;
    }
    left
    {
        type            calculated;
        value           uniform 0;
    }
    front
    {
        type            calculated;
        value           uniform 0;
    }
    right
    {
        type            calculated;
        value           uniform 0;
    }
    top
    {
        type            calculated;
        value           uniform 0;
    }
}


// ************************************************************************* //
