/*--------------------------------*- C++ -*----------------------------------*\
  =========                 |
  \\      /  F ield         | OpenFOAM: The Open Source CFD Toolbox
   \\    /   O peration     | Website:  https://openfoam.org
    \\  /    A nd           | Version:  10
     \\/     M anipulation  |
\*---------------------------------------------------------------------------*/
FoamFile
{
    format      ascii;
    class       volScalarField;
    location    "0";
    object      T;
}
// * * * * * * * * * * * * * * * * * * * * * * * * * * * * * * * * * * * * * //

dimensions      [0 0 0 1 0 0 0];

internalField   uniform 300;

boundaryField
{
    fluid_back
    {
        type            zeroGradient;
    }
    fluid_bottom
    {
        type            fixedValue;
        value           nonuniform List<scalar> 
70
(
444.049757975666
444.048416747366
444.04672971351
444.044601515125
444.04192914679
444.038635165856
444.034748992306
444.030555882072
444.026759135492
444.024421267421
442.788456170898
442.788456170897
442.788456170892
442.788456170894
442.788456170902
442.788456170889
442.788456170878
442.78845617088
442.788456170888
442.788456170886
442.78845617089
442.788456170891
442.788456170893
442.788456170889
442.788456170883
442.788456170892
442.788456170892
442.788456170904
442.788456170904
442.788456170896
444.024421267407
444.026759135478
444.030555882058
444.034748992291
444.038635165841
444.041929146775
444.044601515111
444.046729713495
444.048416747351
444.049757975651
444.050831579611
444.051698451073
444.052405002034
444.05298636085
444.05346913367
444.053873569647
444.054215188892
444.054505984447
444.054755304199
444.054970498101
444.055157395006
444.055320656077
444.055464038572
444.055590594275
444.055702819946
444.055802772303
444.055892156601
444.055972395384
444.056044682257
444.056110024232
444.056169275317
444.056223163326
444.056272311416
444.056317255494
444.056358458362
444.056396321282
444.056431193476
444.056463379962
444.056493148068
444.056520732853
)
;
    }
    fluid_left
    {
        type            zeroGradient;
    }
    fluid_front
    {
        type            zeroGradient;
    }
    fluid_right
    {
        type            zeroGradient;
    }
    fluid_top
    {
        type            zeroGradient;
    }
}


// ************************************************************************* //
