/*--------------------------------*- C++ -*----------------------------------*\
  =========                 |
  \\      /  F ield         | OpenFOAM: The Open Source CFD Toolbox
   \\    /   O peration     | Website:  https://openfoam.org
    \\  /    A nd           | Version:  10
     \\/     M anipulation  |
\*---------------------------------------------------------------------------*/
FoamFile
{
    format      ascii;
    class       volScalarField;
    location    "0";
    object      T;
}
// * * * * * * * * * * * * * * * * * * * * * * * * * * * * * * * * * * * * * //

dimensions      [0 0 0 1 0 0 0];

internalField   uniform 300;

boundaryField
{
    left_back
    {
        type            zeroGradient;
    }
    left_bottom
    {
        type            zeroGradient;
    }
    left_left
    {
        type            zeroGradient;
    }
    left_front
    {
        type            zeroGradient;
    }
    left_top
    {
        type            zeroGradient;
    }
    int_back
    {
        type            zeroGradient;
    }
    int_bottom
    {
        type            fixedValue;
        value           nonuniform List<scalar>
20
(
442.788456170898
442.788456170897
442.788456170892
442.788456170894
442.788456170902
442.788456170889
442.788456170878
442.78845617088
442.788456170888
442.788456170886
442.78845617089
442.788456170891
442.788456170893
442.788456170889
442.788456170883
442.788456170892
442.788456170892
442.788456170904
442.788456170904
442.788456170896
)
;
    }
    int_front
    {
        type            zeroGradient;
    }
    int_top
    {
        type            zeroGradient;
    }
    right_back
    {
        type            zeroGradient;
    }
    right_bottom
    {
        type            zeroGradient;
    }
    right_front
    {
        type            zeroGradient;
    }
    right_right
    {
        type            zeroGradient;
    }
    right_top
    {
        type            zeroGradient;
    }
}


// ************************************************************************* //
