/*--------------------------------*- C++ -*----------------------------------*\
  =========                 |
  \\      /  F ield         | OpenFOAM: The Open Source CFD Toolbox
   \\    /   O peration     | Website:  https://openfoam.org
    \\  /    A nd           | Version:  10
     \\/     M anipulation  |
\*---------------------------------------------------------------------------*/
FoamFile
{
    format      ascii;
    class       volScalarField;
    location    "0";
    object      wallHeatFlux;
}
// * * * * * * * * * * * * * * * * * * * * * * * * * * * * * * * * * * * * * //

dimensions      [1 0 -3 0 0 0 0];

internalField   uniform 0;

boundaryField
{
    fluid_back
    {
        type            calculated;
        value           uniform 0;
    }
    fluid_bottom
    {
        type            calculated;
        value           nonuniform List<scalar> 
70
(
-1164.56438549373
-1164.56228624338
-1164.55964574854
-1164.5563147562
-1164.55213204536
-1164.54697640511
-1164.54089388272
-1164.53433095223
-1164.52838839825
-1164.52472923721
-1162.59023370422
-1162.59023370421
-1162.59023370421
-1162.59023370421
-1162.59023370423
-1162.59023370421
-1162.59023370419
-1162.59023370419
-1162.5902337042
-1162.5902337042
-1162.59023370421
-1162.59023370421
-1162.59023370421
-1162.5902337042
-1162.5902337042
-1162.59023370421
-1162.59023370421
-1162.59023370423
-1162.59023370423
-1162.59023370422
-1164.52472923719
-1164.52838839823
-1164.53433095221
-1164.5408938827
-1164.54697640509
-1164.55213204534
-1164.55631475618
-1164.55964574852
-1164.56228624336
-1164.56438549371
-1164.56606586645
-1164.56742266769
-1164.56852854008
-1164.56943846548
-1164.57019408703
-1164.5708270981
-1164.57136179031
-1164.5718169348
-1164.5722071626
-1164.57254397765
-1164.57283650309
-1164.57309203442
-1164.57331645241
-1164.5735145336
-1164.57369018586
-1164.57384662829
-1164.57398652992
-1164.57411211726
-1164.5742252585
-1164.5743275298
-1164.57442026782
-1164.57450461172
-1164.57458153684
-1164.57465188196
-1164.57471637146
-1164.57477563337
-1164.57483021428
-1164.57488059161
-1164.57492718375
-1164.57497035863
)
;
    }
    fluid_left
    {
        type            calculated;
        value           uniform 0;
    }
    fluid_front
    {
        type            calculated;
        value           uniform 0;
    }
    fluid_right
    {
        type            calculated;
        value           uniform 0;
    }
    fluid_top
    {
        type            calculated;
        value           uniform 0;
    }
}


// ************************************************************************* //
