/*--------------------------------*- C++ -*----------------------------------*\
  =========                 |
  \\      /  F ield         | OpenFOAM: The Open Source CFD Toolbox
   \\    /   O peration     | Website:  https://openfoam.org
    \\  /    A nd           | Version:  10
     \\/     M anipulation  |
\*---------------------------------------------------------------------------*/
FoamFile
{
    format      ascii;
    class       volScalarField;
    location    "0";
    object      wallHeatFlux;
}
// * * * * * * * * * * * * * * * * * * * * * * * * * * * * * * * * * * * * * //

dimensions      [1 0 -3 0 0 0 0];

internalField   uniform 0;

boundaryField
{
    left_back
    {
        type            calculated;
        value           uniform 0;
    }
    left_bottom
    {
        type            calculated;
        value           uniform 0;
    }
    left_left
    {
        type            calculated;
        value           uniform 0;
    }
    left_front
    {
        type            calculated;
        value           uniform 0;
    }
    left_top
    {
        type            calculated;
        value           uniform 0;
    }
    int_back
    {
        type            calculated;
        value           uniform 0;
    }
    int_bottom
    {
        type            calculated;
        value           nonuniform List<scalar>
20
(
223.488212896776
223.488212896773
223.488212896766
223.488212896769
223.488212896782
223.488212896762
223.488212896744
223.488212896747
223.48821289676
223.488212896757
223.488212896763
223.488212896765
223.488212896768
223.488212896761
223.488212896752
223.488212896766
223.488212896766
223.488212896785
223.488212896785
223.488212896773
)
;
    }
    int_front
    {
        type            calculated;
        value           uniform 0;
    }
    int_top
    {
        type            calculated;
        value           uniform 0;
    }
    right_back
    {
        type            calculated;
        value           uniform 0;
    }
    right_bottom
    {
        type            calculated;
        value           uniform 0;
    }
    right_front
    {
        type            calculated;
        value           uniform 0;
    }
    right_right
    {
        type            calculated;
        value           uniform 0;
    }
    right_top
    {
        type            calculated;
        value           uniform 0;
    }
}


// ************************************************************************* //
